# vtk DataFile Version 3.0
vtk output
ASCII
DATASET POLYDATA
POINTS 1002 float
-4.98614 0.896416 8.62176 -5.25731 0 8.50651 -4.43213 0 8.96416 
-4.6358 1.87522 8.65984 -4.08385 0.943972 9.07916 -3.47685 0 9.37611 
-4.19981 2.91233 8.59535 -3.65281 1.97013 9.09811 -3.04401 0.985063 9.47437 
-2.39989 0 9.70776 -3.6802 3.96979 8.40815 -3.13849 3.04691 8.99256 
-2.53082 2.04747 9.45531 -1.8831 1.01564 9.76844 -1.22673 0 9.92447 
-3.09017 5 8.09017 -2.55133 4.12813 8.74353 -1.94541 3.14775 9.29016 
-1.29694 2.0985 9.69094 -0.637832 1.03203 9.92613 0 0 10 
-2.45346 5.95468 7.64998 -1.91349 5.16017 8.34932 -1.30799 4.23275 8.9651 
-0.659662 3.20207 9.45048 3.45272e-16 2.11637 9.77348 0.637832 1.03203 9.92613 
1.22673 0 9.92447 -1.79992 6.79543 7.11213 -1.2554 6.09383 7.82874 
-0.648472 5.24625 8.4886 0 4.26943 9.04279 0.659662 3.20207 9.45048 
1.29694 2.0985 9.69094 1.8831 1.01564 9.76844 2.39989 0 9.70776 
-1.15895 7.50089 6.51103 -0.608802 6.89544 7.2168 1.67016e-16 6.14242 7.89117 
0.648472 5.24625 8.4886 1.30799 4.23275 8.9651 1.94541 3.14775 9.29016 
2.53082 2.04747 9.45531 3.04401 0.985063 9.47437 3.47685 0 9.37611 
-0.554016 8.06775 5.88256 3.85007e-16 7.55178 6.5552 0.608802 6.89544 7.2168 
1.2554 6.09383 7.82874 1.91349 5.16017 8.34932 2.55133 4.12813 8.74353 
3.13849 3.04691 8.99256 3.65281 1.97013 9.09811 4.08385 0.943972 9.07916 
4.43213 0 8.96416 0 8.50651 5.25731 0.554016 8.06775 5.88256 
1.15895 7.50089 6.51103 1.79992 6.79543 7.11213 2.45346 5.95468 7.64998 
3.09017 5 8.09017 3.6802 3.96979 8.40815 4.19981 2.91233 8.59535 
4.6358 1.87522 8.65984 4.98614 0.896416 8.62176 5.25731 0 8.50651 
-5.88256 0.554016 8.06775 -6.51103 1.15895 7.50089 -5.61123 1.52738 8.13519 
-7.11213 1.79992 6.79543 -6.23174 2.20267 7.50424 -5.24668 2.57893 8.11304 
-7.64998 2.45346 5.95468 -6.81311 2.89873 6.72153 -5.8437 3.31288 7.40783 
-4.78183 3.67461 7.97692 -8.09017 3.09017 5 -7.31729 3.58336 5.798 
-6.39011 4.04391 6.54319 -5.34086 4.44469 7.19166 -4.22119 4.76596 7.71149 
-8.40815 3.6802 3.96979 -7.71149 4.22119 4.76596 -6.84873 4.73235 5.54074 
-5.84072 5.18106 6.24841 -4.73235 5.54074 6.84873 -3.58336 5.798 7.31729 
-8.59535 4.19981 2.91233 -7.97692 4.78183 3.67461 -7.19166 5.34086 4.44469 
-6.24841 5.84072 5.18106 -5.18106 6.24841 5.84072 -4.04391 6.54319 6.39011 
-2.89873 6.72153 6.81311 -8.65984 4.6358 1.87522 -8.11304 5.24668 2.57893 
-7.40783 5.8437 3.31288 -6.54319 6.39011 4.04391 -5.54074 6.84873 4.73235 
-4.44469 7.19166 5.34086 -3.31288 7.40783 5.8437 -2.20267 7.50424 6.23174 
-8.62176 4.98614 0.896416 -8.13519 5.61123 1.52738 -7.50424 6.23174 2.20267 
-6.72153 6.81311 2.89873 -5.798 7.31729 3.58336 -4.76596 7.71149 4.22119 
-3.67461 7.97692 4.78183 -2.57893 8.11304 5.24668 -1.52738 8.13519 5.61123 
-8.50651 5.25731 0 -8.06775 5.88256 0.554016 -7.50089 6.51103 1.15895 
-6.79543 7.11213 1.79992 -5.95468 7.64998 2.45346 -5 8.09017 3.09017 
-3.96979 8.40815 3.6802 -2.91233 8.59535 4.19981 -1.87522 8.65984 4.6358 
-0.896416 8.62176 4.98614 -8.06775 5.88256 -0.554016 -7.50089 6.51103 -1.15895 
-7.55178 6.5552 0 -6.79543 7.11213 -1.79992 -6.89544 7.2168 -0.608802 
-6.89544 7.2168 0.608802 -5.95468 7.64998 -2.45346 -6.09383 7.82874 -1.2554 
-6.14242 7.89117 0 -6.09383 7.82874 1.2554 -5 8.09017 -3.09017 
-5.16017 8.34932 -1.91349 -5.24625 8.4886 -0.648472 -5.24625 8.4886 0.648472 
-5.16017 8.34932 1.91349 -3.96979 8.40815 -3.6802 -4.12813 8.74353 -2.55133 
-4.23275 8.9651 -1.30799 -4.26943 9.04279 0 -4.23275 8.9651 1.30799 
-4.12813 8.74353 2.55133 -2.91233 8.59535 -4.19981 -3.04691 8.99256 -3.13849 
-3.14775 9.29016 -1.94541 -3.20207 9.45048 -0.659662 -3.20207 9.45048 0.659662 
-3.14775 9.29016 1.94541 -3.04691 8.99256 3.13849 -1.87522 8.65984 -4.6358 
-1.97013 9.09811 -3.65281 -2.04747 9.45531 -2.53082 -2.0985 9.69094 -1.29694 
-2.11637 9.77348 0 -2.0985 9.69094 1.29694 -2.04747 9.45531 2.53082 
-1.97013 9.09811 3.65281 -0.896416 8.62176 -4.98614 -0.943972 9.07916 -4.08385 
-0.985063 9.47437 -3.04401 -1.01564 9.76844 -1.8831 -1.03203 9.92613 -0.637832 
-1.03203 9.92613 0.637832 -1.01564 9.76844 1.8831 -0.985063 9.47437 3.04401 
-0.943972 9.07916 4.08385 0 8.50651 -5.25731 0 8.96416 -4.43213 
0 9.37611 -3.47685 0 9.70776 -2.39989 0 9.92447 -1.22673 
0 10 0 0 9.92447 1.22673 0 9.70776 2.39989 
0 9.37611 3.47685 0 8.96416 4.43213 0.896416 8.62176 4.98614 
0.943972 9.07916 4.08385 1.87522 8.65984 4.6358 0.985063 9.47437 3.04401 
1.97013 9.09811 3.65281 2.91233 8.59535 4.19981 1.01564 9.76844 1.8831 
2.04747 9.45531 2.53082 3.04691 8.99256 3.13849 3.96979 8.40815 3.6802 
1.03203 9.92613 0.637832 2.0985 9.69094 1.29694 3.14775 9.29016 1.94541 
4.12813 8.74353 2.55133 5 8.09017 3.09017 1.03203 9.92613 -0.637832 
2.11637 9.77348 -5.17908e-16 3.20207 9.45048 0.659662 4.23275 8.9651 1.30799 
5.16017 8.34932 1.91349 5.95468 7.64998 2.45346 1.01564 9.76844 -1.8831 
2.0985 9.69094 -1.29694 3.20207 9.45048 -0.659662 4.26943 9.04279 3.48264e-16 
5.24625 8.4886 0.648472 6.09383 7.82874 1.2554 6.79543 7.11213 1.79992 
0.985063 9.47437 -3.04401 2.04747 9.45531 -2.53082 3.14775 9.29016 -1.94541 
4.23275 8.9651 -1.30799 5.24625 8.4886 -0.648472 6.14242 7.89117 0 
6.89544 7.2168 0.608802 7.50089 6.51103 1.15895 0.943972 9.07916 -4.08385 
1.97013 9.09811 -3.65281 3.04691 8.99256 -3.13849 4.12813 8.74353 -2.55133 
5.16017 8.34932 -1.91349 6.09383 7.82874 -1.2554 6.89544 7.2168 -0.608802 
7.55178 6.5552 -6.16011e-16 8.06775 5.88256 0.554016 0.896416 8.62176 -4.98614 
1.87522 8.65984 -4.6358 2.91233 8.59535 -4.19981 3.96979 8.40815 -3.6802 
5 8.09017 -3.09017 5.95468 7.64998 -2.45346 6.79543 7.11213 -1.79992 
7.50089 6.51103 -1.15895 8.06775 5.88256 -0.554016 8.50651 5.25731 0 
1.52738 8.13519 5.61123 2.57893 8.11304 5.24668 2.20267 7.50424 6.23174 
3.67461 7.97692 4.78183 3.31288 7.40783 5.8437 2.89873 6.72153 6.81311 
4.76596 7.71149 4.22119 4.44469 7.19166 5.34086 4.04391 6.54319 6.39011 
3.58336 5.798 7.31729 5.798 7.31729 3.58336 5.54074 6.84873 4.73235 
5.18106 6.24841 5.84072 4.73235 5.54074 6.84873 4.22119 4.76596 7.71149 
6.72153 6.81311 2.89873 6.54319 6.39011 4.04391 6.24841 5.84072 5.18106 
5.84072 5.18106 6.24841 5.34086 4.44469 7.19166 4.78183 3.67461 7.97692 
7.50424 6.23174 2.20267 7.40783 5.8437 3.31288 7.19166 5.34086 4.44469 
6.84873 4.73235 5.54074 6.39011 4.04391 6.54319 5.8437 3.31288 7.40783 
5.24668 2.57893 8.11304 8.13519 5.61123 1.52738 8.11304 5.24668 2.57893 
7.97692 4.78183 3.67461 7.71149 4.22119 4.76596 7.31729 3.58336 5.798 
6.81311 2.89873 6.72153 6.23174 2.20267 7.50424 5.61123 1.52738 8.13519 
8.62176 4.98614 0.896416 8.65984 4.6358 1.87522 8.59535 4.19981 2.91233 
8.40815 3.6802 3.96979 8.09017 3.09017 5 7.64998 2.45346 5.95468 
7.11213 1.79992 6.79543 6.51103 1.15895 7.50089 5.88256 0.554016 8.06775 
8.96416 4.43213 0 9.37611 3.47685 0 9.07916 4.08385 0.943972 
9.70776 2.39989 0 9.47437 3.04401 0.985063 9.09811 3.65281 1.97013 
9.92447 1.22673 0 9.76844 1.8831 1.01564 9.45531 2.53082 2.04747 
8.99256 3.13849 3.04691 10 0 0 9.92613 0.637832 1.03203 
9.69094 1.29694 2.0985 9.29016 1.94541 3.14775 8.74353 2.55133 4.12813 
9.92447 -1.22673 0 9.92613 -0.637832 1.03203 9.77348 -5.17908e-16 2.11637 
9.45048 0.659662 3.20207 8.9651 1.30799 4.23275 8.34932 1.91349 5.16017 
9.70776 -2.39989 0 9.76844 -1.8831 1.01564 9.69094 -1.29694 2.0985 
9.45048 -0.659662 3.20207 9.04279 3.48264e-16 4.26943 8.4886 0.648472 5.24625 
7.82874 1.2554 6.09383 9.37611 -3.47685 0 9.47437 -3.04401 0.985063 
9.45531 -2.53082 2.04747 9.29016 -1.94541 3.14775 8.9651 -1.30799 4.23275 
8.4886 -0.648472 5.24625 7.89117 0 6.14242 7.2168 0.608802 6.89544 
8.96416 -4.43213 0 9.07916 -4.08385 0.943972 9.09811 -3.65281 1.97013 
8.99256 -3.13849 3.04691 8.74353 -2.55133 4.12813 8.34932 -1.91349 5.16017 
7.82874 -1.2554 6.09383 7.2168 -0.608802 6.89544 6.5552 -6.16011e-16 7.55178 
8.50651 -5.25731 0 8.62176 -4.98614 0.896416 8.65984 -4.6358 1.87522 
8.59535 -4.19981 2.91233 8.40815 -3.6802 3.96979 8.09017 -3.09017 5 
7.64998 -2.45346 5.95468 7.11213 -1.79992 6.79543 6.51103 -1.15895 7.50089 
5.88256 -0.554016 8.06775 8.62176 4.98614 -0.896416 8.65984 4.6358 -1.87522 
9.07916 4.08385 -0.943972 8.59535 4.19981 -2.91233 9.09811 3.65281 -1.97013 
9.47437 3.04401 -0.985063 8.40815 3.6802 -3.96979 8.99256 3.13849 -3.04691 
9.45531 2.53082 -2.04747 9.76844 1.8831 -1.01564 8.09017 3.09017 -5 
8.74353 2.55133 -4.12813 9.29016 1.94541 -3.14775 9.69094 1.29694 -2.0985 
9.92613 0.637832 -1.03203 7.64998 2.45346 -5.95468 8.34932 1.91349 -5.16017 
8.9651 1.30799 -4.23275 9.45048 0.659662 -3.20207 9.77348 -3.45272e-16 -2.11637 
9.92613 -0.637832 -1.03203 7.11213 1.79992 -6.79543 7.82874 1.2554 -6.09383 
8.4886 0.648472 -5.24625 9.04279 0 -4.26943 9.45048 -0.659662 -3.20207 
9.69094 -1.29694 -2.0985 9.76844 -1.8831 -1.01564 6.51103 1.15895 -7.50089 
7.2168 0.608802 -6.89544 7.89117 -1.67016e-16 -6.14242 8.4886 -0.648472 -5.24625 
8.9651 -1.30799 -4.23275 9.29016 -1.94541 -3.14775 9.45531 -2.53082 -2.04747 
9.47437 -3.04401 -0.985063 5.88256 0.554016 -8.06775 6.5552 -3.85007e-16 -7.55178 
7.2168 -0.608802 -6.89544 7.82874 -1.2554 -6.09383 8.34932 -1.91349 -5.16017 
8.74353 -2.55133 -4.12813 8.99256 -3.13849 -3.04691 9.09811 -3.65281 -1.97013 
9.07916 -4.08385 -0.943972 5.25731 0 -8.50651 5.88256 -0.554016 -8.06775 
6.51103 -1.15895 -7.50089 7.11213 -1.79992 -6.79543 7.64998 -2.45346 -5.95468 
8.09017 -3.09017 -5 8.40815 -3.6802 -3.96979 8.59535 -4.19981 -2.91233 
8.65984 -4.6358 -1.87522 8.62176 -4.98614 -0.896416 0.554016 8.06775 -5.88256 
1.15895 7.50089 -6.51103 1.52738 8.13519 -5.61123 1.79992 6.79543 -7.11213 
2.20267 7.50424 -6.23174 2.57893 8.11304 -5.24668 2.45346 5.95468 -7.64998 
2.89873 6.72153 -6.81311 3.31288 7.40783 -5.8437 3.67461 7.97692 -4.78183 
3.09017 5 -8.09017 3.58336 5.798 -7.31729 4.04391 6.54319 -6.39011 
4.44469 7.19166 -5.34086 4.76596 7.71149 -4.22119 3.6802 3.96979 -8.40815 
4.22119 4.76596 -7.71149 4.73235 5.54074 -6.84873 5.18106 6.24841 -5.84072 
5.54074 6.84873 -4.73235 5.798 7.31729 -3.58336 4.19981 2.91233 -8.59535 
[...]
POINT_DATA 1002
COLOR_SCALARS ColorByDirection 3
0.247059 0.541176 0.929412 0.235294 0.498039 0.921569 0.27451 0.498039 0.945098 
0.266667 0.592157 0.929412 0.294118 0.545098 0.952941 
0.32549 0.498039 0.968627 0.286275 0.643137 0.929412 
0.313725 0.596078 0.952941 0.345098 0.54902 0.972549 
0.376471 0.498039 0.984314 0.313725 0.698039 0.917647 
0.341176 0.65098 0.94902 0.372549 0.6 0.972549 
0.403922 0.54902 0.988235 0.435294 0.498039 0.996078 
0.345098 0.74902 0.901961 0.368627 0.705882 0.933333 
0.4 0.654902 0.960784 0.431373 0.603922 0.984314 
0.466667 0.54902 0.996078 0.498039 0.498039 1 
0.376471 0.796078 0.882353 0.403922 0.756863 0.913725 
0.431373 0.709804 0.945098 0.466667 0.658824 0.968627 
0.498039 0.603922 0.988235 0.529412 0.54902 0.996078 
0.560784 0.498039 0.996078 0.407843 0.839216 0.854902 
0.435294 0.803922 0.890196 0.466667 0.760784 0.921569 
0.498039 0.709804 0.94902 0.529412 0.658824 0.968627 
0.564706 0.603922 0.984314 0.592157 0.54902 0.988235 
0.619608 0.498039 0.984314 0.439216 0.87451 0.823529 
0.466667 0.843137 0.858824 0.498039 0.803922 0.894118 
0.529412 0.760784 0.921569 0.564706 0.709804 0.945098 
0.596078 0.654902 0.960784 0.623529 0.6 0.972549 
0.65098 0.54902 0.972549 0.670588 0.498039 0.968627 
0.470588 0.901961 0.792157 0.498039 0.87451 0.827451 
0.529412 0.843137 0.858824 0.560784 0.803922 0.890196 
0.592157 0.756863 0.913725 0.627451 0.705882 0.933333 
0.654902 0.65098 0.94902 0.682353 0.596078 0.952941 
0.701961 0.545098 0.952941 0.721569 0.498039 0.945098 
0.498039 0.921569 0.760784 0.52549 0.901961 0.792157 
0.556863 0.87451 0.823529 0.588235 0.839216 0.854902 
0.619608 0.796078 0.882353 0.65098 0.74902 0.901961 
0.682353 0.698039 0.917647 0.709804 0.643137 0.929412 
0.729412 0.592157 0.929412 0.74902 0.541176 0.929412 
0.760784 0.498039 0.921569 0.203922 0.52549 0.901961 
0.172549 0.556863 0.87451 0.215686 0.572549 0.905882 
0.141176 0.588235 0.839216 0.188235 0.607843 0.87451 
0.235294 0.627451 0.901961 0.113725 0.619608 0.796078 
0.156863 0.643137 0.835294 0.203922 0.662745 0.866667 
0.258824 0.682353 0.898039 0.0941176 0.65098 0.74902 
0.133333 0.678431 0.788235 0.180392 0.701961 0.823529 
0.231373 0.721569 0.858824 0.286275 0.737255 0.882353 
0.0784314 0.682353 0.698039 0.113725 0.709804 0.737255 
0.156863 0.733333 0.776471 0.207843 0.756863 0.811765 
0.262745 0.776471 0.839216 0.317647 0.788235 0.862745 
0.0666667 0.709804 0.643137 0.0980392 0.737255 0.682353 
0.137255 0.764706 0.721569 0.184314 0.788235 0.756863 
0.239216 0.811765 0.788235 0.294118 0.823529 0.815686 
0.352941 0.835294 0.839216 0.0666667 0.729412 0.592157 
0.0941176 0.760784 0.627451 0.129412 0.792157 0.662745 
0.172549 0.815686 0.701961 0.219608 0.839216 0.733333 
0.27451 0.858824 0.764706 0.333333 0.866667 0.792157 
0.388235 0.87451 0.807843 0.0666667 0.74902 0.541176 
0.0901961 0.780392 0.572549 0.121569 0.807843 0.607843 
0.160784 0.839216 0.643137 0.207843 0.862745 0.678431 
0.258824 0.882353 0.709804 0.313725 0.898039 0.737255 
0.368627 0.901961 0.760784 0.423529 0.905882 0.780392 
0.0745098 0.760784 0.498039 0.0941176 0.792157 0.52549 
0.121569 0.823529 0.556863 0.156863 0.854902 0.588235 
0.2 0.882353 0.619608 0.247059 0.901961 0.65098 
0.298039 0.917647 0.682353 0.352941 0.929412 0.709804 
0.403922 0.929412 0.729412 0.454902 0.929412 0.74902 
0.0941176 0.792157 0.470588 0.121569 0.823529 0.439216 
0.121569 0.827451 0.498039 0.156863 0.854902 0.407843 
0.152941 0.858824 0.466667 0.152941 0.858824 0.529412 
0.2 0.882353 0.376471 0.192157 0.890196 0.435294 
0.192157 0.894118 0.498039 0.192157 0.890196 0.560784 
0.247059 0.901961 0.345098 0.239216 0.913725 0.403922 
0.235294 0.921569 0.466667 0.235294 0.921569 0.529412 
0.239216 0.913725 0.592157 0.298039 0.917647 0.313725 
0.290196 0.933333 0.368627 0.286275 0.945098 0.431373 
0.286275 0.94902 0.498039 0.286275 0.945098 0.564706 
0.290196 0.933333 0.627451 0.352941 0.929412 0.286275 
0.345098 0.94902 0.341176 0.341176 0.960784 0.4 
0.337255 0.968627 0.466667 0.337255 0.968627 0.529412 
0.341176 0.960784 0.596078 0.345098 0.94902 0.654902 
0.403922 0.929412 0.266667 0.4 0.952941 0.313725 
0.396078 0.972549 0.372549 0.392157 0.984314 0.431373 
0.392157 0.988235 0.498039 0.392157 0.984314 0.564706 
0.396078 0.972549 0.623529 0.4 0.952941 0.682353 
0.454902 0.929412 0.247059 0.45098 0.952941 0.294118 
0.447059 0.972549 0.345098 0.447059 0.988235 0.403922 
0.447059 0.996078 0.466667 0.447059 0.996078 0.529412 
0.447059 0.988235 0.592157 0.447059 0.972549 0.65098 
0.45098 0.952941 0.701961 0.498039 0.921569 0.235294 
0.498039 0.945098 0.27451 0.498039 0.968627 0.32549 
0.498039 0.984314 0.376471 0.498039 0.996078 0.435294 
0.498039 1 0.498039 0.498039 0.996078 0.560784 
0.498039 0.984314 0.619608 0.498039 0.968627 0.670588 
0.498039 0.945098 0.721569 0.541176 0.929412 0.74902 
0.545098 0.952941 0.701961 0.592157 0.929412 0.729412 
0.54902 0.972549 0.65098 0.596078 0.952941 0.682353 
0.643137 0.929412 0.709804 0.54902 0.988235 0.592157 
0.6 0.972549 0.623529 0.65098 0.94902 0.654902 
0.698039 0.917647 0.682353 0.54902 0.996078 0.529412 
0.603922 0.984314 0.564706 0.654902 0.960784 0.596078 
0.705882 0.933333 0.627451 0.74902 0.901961 0.65098 
0.54902 0.996078 0.466667 0.603922 0.988235 0.498039 
0.658824 0.968627 0.529412 0.709804 0.945098 0.564706 
0.756863 0.913725 0.592157 0.796078 0.882353 0.619608 
0.54902 0.988235 0.403922 0.603922 0.984314 0.431373 
0.658824 0.968627 0.466667 0.709804 0.94902 0.498039 
0.760784 0.921569 0.529412 0.803922 0.890196 0.560784 
0.839216 0.854902 0.588235 0.54902 0.972549 0.345098 
0.6 0.972549 0.372549 0.654902 0.960784 0.4 
0.709804 0.945098 0.431373 0.760784 0.921569 0.466667 
0.803922 0.894118 0.498039 0.843137 0.858824 0.529412 
0.87451 0.823529 0.556863 0.545098 0.952941 0.294118 
0.596078 0.952941 0.313725 0.65098 0.94902 0.341176 
0.705882 0.933333 0.368627 0.756863 0.913725 0.403922 
0.803922 0.890196 0.435294 0.843137 0.858824 0.466667 
0.87451 0.827451 0.498039 0.901961 0.792157 0.52549 
0.541176 0.929412 0.247059 0.592157 0.929412 0.266667 
0.643137 0.929412 0.286275 0.698039 0.917647 0.313725 
0.74902 0.901961 0.345098 0.796078 0.882353 0.376471 
0.839216 0.854902 0.407843 0.87451 0.823529 0.439216 
0.901961 0.792157 0.470588 0.921569 0.760784 0.498039 
0.572549 0.905882 0.780392 0.627451 0.901961 0.760784 
0.607843 0.87451 0.807843 0.682353 0.898039 0.737255 
0.662745 0.866667 0.792157 0.643137 0.835294 0.839216 
0.737255 0.882353 0.709804 0.721569 0.858824 0.764706 
0.701961 0.823529 0.815686 0.678431 0.788235 0.862745 
0.788235 0.862745 0.678431 0.776471 0.839216 0.733333 
0.756863 0.811765 0.788235 0.733333 0.776471 0.839216 
0.709804 0.737255 0.882353 0.835294 0.839216 0.643137 
0.823529 0.815686 0.701961 0.811765 0.788235 0.756863 
0.788235 0.756863 0.811765 0.764706 0.721569 0.858824 
0.737255 0.682353 0.898039 0.87451 0.807843 0.607843 
0.866667 0.792157 0.662745 0.858824 0.764706 0.721569 
0.839216 0.733333 0.776471 0.815686 0.701961 0.823529 
0.792157 0.662745 0.866667 0.760784 0.627451 0.901961 
0.905882 0.780392 0.572549 0.901961 0.760784 0.627451 
0.898039 0.737255 0.682353 0.882353 0.709804 0.737255 
0.862745 0.678431 0.788235 0.839216 0.643137 0.835294 
0.807843 0.607843 0.87451 0.780392 0.572549 0.905882 
0.929412 0.74902 0.541176 0.929412 0.729412 0.592157 
0.929412 0.709804 0.643137 0.917647 0.682353 0.698039 
0.901961 0.65098 0.74902 0.882353 0.619608 0.796078 
0.854902 0.588235 0.839216 0.823529 0.556863 0.87451 
0.792157 0.52549 0.901961 0.945098 0.721569 0.498039 
0.968627 0.670588 0.498039 0.952941 0.701961 0.545098 
0.984314 0.619608 0.498039 0.972549 0.65098 0.54902 
0.952941 0.682353 0.596078 0.996078 0.560784 0.498039 
0.988235 0.592157 0.54902 0.972549 0.623529 0.6 
0.94902 0.654902 0.65098 1 0.498039 0.498039 
0.996078 0.529412 0.54902 0.984314 0.564706 0.603922 
0.960784 0.596078 0.654902 0.933333 0.627451 0.705882 
0.996078 0.435294 0.498039 0.996078 0.466667 0.54902 
0.988235 0.498039 0.603922 0.968627 0.529412 0.658824 
0.945098 0.564706 0.709804 0.913725 0.592157 0.756863 
0.984314 0.376471 0.498039 0.988235 0.403922 0.54902 
0.984314 0.431373 0.603922 0.968627 0.466667 0.658824 
0.94902 0.498039 0.709804 0.921569 0.529412 0.760784 
0.890196 0.560784 0.803922 0.968627 0.32549 0.498039 
0.972549 0.345098 0.54902 0.972549 0.372549 0.6 
0.960784 0.4 0.654902 0.945098 0.431373 0.709804 
0.921569 0.466667 0.760784 0.894118 0.498039 0.803922 
0.858824 0.529412 0.843137 0.945098 0.27451 0.498039 
0.952941 0.294118 0.545098 0.952941 0.313725 0.596078 
0.94902 0.341176 0.65098 0.933333 0.368627 0.705882 
0.913725 0.403922 0.756863 0.890196 0.435294 0.803922 
0.858824 0.466667 0.843137 0.827451 0.498039 0.87451 
0.921569 0.235294 0.498039 0.929412 0.247059 0.541176 
0.929412 0.266667 0.592157 0.929412 0.286275 0.643137 
0.917647 0.313725 0.698039 0.901961 0.345098 0.74902 
0.882353 0.376471 0.796078 0.854902 0.407843 0.839216 
0.823529 0.439216 0.87451 0.792157 0.470588 0.901961 
0.929412 0.74902 0.454902 0.929412 0.729412 0.403922 
0.952941 0.701961 0.45098 0.929412 0.709804 0.352941 
0.952941 0.682353 0.4 0.972549 0.65098 0.447059 
0.917647 0.682353 0.298039 0.94902 0.654902 0.345098 
0.972549 0.623529 0.396078 0.988235 0.592157 0.447059 
0.901961 0.65098 0.247059 0.933333 0.627451 0.290196 
0.960784 0.596078 0.341176 0.984314 0.564706 0.392157 
0.996078 0.529412 0.447059 0.882353 0.619608 0.2 
0.913725 0.592157 0.239216 0.945098 0.564706 0.286275 
0.968627 0.529412 0.337255 0.988235 0.498039 0.392157 
0.996078 0.466667 0.447059 0.854902 0.588235 0.156863 
0.890196 0.560784 0.192157 0.921569 0.529412 0.235294 
0.94902 0.498039 0.286275 0.968627 0.466667 0.337255 
0.984314 0.431373 0.392157 0.988235 0.403922 0.447059 
0.823529 0.556863 0.121569 0.858824 0.529412 0.152941 
0.894118 0.498039 0.192157 0.921569 0.466667 0.235294 
0.945098 0.431373 0.286275 0.960784 0.4 0.341176 
0.972549 0.372549 0.396078 0.972549 0.345098 0.447059 
0.792157 0.52549 0.0941176 0.827451 0.498039 0.121569 
0.858824 0.466667 0.152941 0.890196 0.435294 0.192157 
0.913725 0.403922 0.239216 0.933333 0.368627 0.290196 
0.94902 0.341176 0.345098 0.952941 0.313725 0.4 
0.952941 0.294118 0.45098 0.760784 0.498039 0.0745098 
0.792157 0.470588 0.0941176 0.823529 0.439216 0.121569 
0.854902 0.407843 0.156863 0.882353 0.376471 0.2 
0.901961 0.345098 0.247059 0.917647 0.313725 0.298039 
0.929412 0.286275 0.352941 0.929412 0.266667 0.403922 
0.929412 0.247059 0.454902 0.52549 0.901961 0.203922 
0.556863 0.87451 0.172549 0.572549 0.905882 0.215686 
0.588235 0.839216 0.141176 0.607843 0.87451 0.188235 
0.627451 0.901961 0.235294 0.619608 0.796078 0.113725 
0.643137 0.835294 0.156863 0.662745 0.866667 0.203922 
0.682353 0.898039 0.258824 0.65098 0.74902 0.0941176 
0.678431 0.788235 0.133333 0.701961 0.823529 0.180392 
0.721569 0.858824 0.231373 0.737255 0.882353 0.286275 
0.682353 0.698039 0.0784314 0.709804 0.737255 0.113725 
0.733333 0.776471 0.156863 0.756863 0.811765 0.207843 
0.776471 0.839216 0.262745 0.788235 0.862745 0.317647 
0.709804 0.643137 0.0666667 0.737255 0.682353 0.0980392 
0.764706 0.721569 0.137255 0.788235 0.756863 0.184314 
0.811765 0.788235 0.239216 0.823529 0.815686 0.294118 
0.835294 0.839216 0.352941 0.729412 0.592157 0.0666667 
0.760784 0.627451 0.0941176 0.792157 0.662745 0.129412 
0.815686 0.701961 0.172549 0.839216 0.733333 0.219608 
0.858824 0.764706 0.27451 0.866667 0.792157 0.333333 
0.87451 0.807843 0.388235 0.74902 0.541176 0.0666667 
0.780392 0.572549 0.0901961 0.807843 0.607843 0.121569 
0.839216 0.643137 0.160784 0.862745 0.678431 0.207843 
0.882353 0.709804 0.258824 0.898039 0.737255 0.313725 
0.901961 0.760784 0.368627 0.905882 0.780392 0.423529 
0.470588 0.901961 0.203922 0.439216 0.87451 0.172549 
0.498039 0.87451 0.168627 0.407843 0.839216 0.141176 
0.466667 0.843137 0.137255 0.529412 0.843137 0.137255 
0.376471 0.796078 0.113725 0.435294 0.803922 0.105882 
0.498039 0.803922 0.101961 0.560784 0.803922 0.105882 
0.345098 0.74902 0.0941176 0.403922 0.756863 0.0823529 
0.466667 0.760784 0.0745098 0.529412 0.760784 0.0745098 
0.592157 0.756863 0.0823529 0.313725 0.698039 0.0784314 
0.368627 0.705882 0.0627451 0.431373 0.709804 0.0509804 
0.498039 0.709804 0.0470588 0.564706 0.709804 0.0509804 
0.627451 0.705882 0.0627451 0.286275 0.643137 0.0666667 
0.341176 0.65098 0.0470588 0.4 0.654902 0.0352941 
0.466667 0.658824 0.027451 0.529412 0.658824 0.027451 
0.596078 0.654902 0.0352941 0.654902 0.65098 0.0470588 
0.266667 0.592157 0.0666667 0.313725 0.596078 0.0431373 
0.372549 0.6 0.0235294 0.431373 0.603922 0.0117647 
0.498039 0.603922 0.00784314 0.564706 0.603922 0.0117647 
0.623529 0.6 0.0235294 0.682353 0.596078 0.0431373 
0.247059 0.541176 0.0666667 0.294118 0.545098 0.0431373 
0.345098 0.54902 0.0235294 0.403922 0.54902 0.00784314 
0.466667 0.54902 0 0.529412 0.54902 0 
0.592157 0.54902 0.00784314 0.65098 0.54902 0.0235294 
0.701961 0.545098 0.0431373 0.235294 0.498039 0.0745098 
0.27451 0.498039 0.0509804 0.32549 0.498039 0.027451 
0.376471 0.498039 0.0117647 0.435294 0.498039 0 
0.498039 0.498039 0 0.560784 0.498039 0 
0.619608 0.498039 0.0117647 0.670588 0.498039 0.027451 
0.721569 0.498039 0.0509804 0.247059 0.454902 0.0666667 
0.266667 0.403922 0.0666667 0.294118 0.45098 0.0431373 
0.286275 0.352941 0.0666667 0.313725 0.4 0.0431373 
0.345098 0.447059 0.0235294 0.313725 0.298039 0.0784314 
0.341176 0.345098 0.0470588 0.372549 0.396078 0.0235294 
0.403922 0.447059 0.00784314 0.345098 0.247059 0.0941176 
0.368627 0.290196 0.0627451 0.4 0.341176 0.0352941 
0.431373 0.392157 0.0117647 0.466667 0.447059 0 
0.376471 0.2 0.113725 0.403922 0.239216 0.0823529 
0.431373 0.286275 0.0509804 0.466667 0.337255 0.027451 
0.498039 0.392157 0.00784314 0.529412 0.447059 0 
0.407843 0.156863 0.141176 0.435294 0.192157 0.105882 
0.466667 0.235294 0.0745098 0.498039 0.286275 0.0470588 
0.529412 0.337255 0.027451 0.564706 0.392157 0.0117647 
0.592157 0.447059 0.00784314 0.439216 0.121569 0.172549 
0.466667 0.152941 0.137255 0.498039 0.192157 0.101961 
0.529412 0.235294 0.0745098 0.564706 0.286275 0.0509804 
0.596078 0.341176 0.0352941 0.623529 0.396078 0.0235294 
0.65098 0.447059 0.0235294 0.470588 0.0941176 0.203922 
0.498039 0.121569 0.168627 0.529412 0.152941 0.137255 
0.560784 0.192157 0.105882 0.592157 0.239216 0.0823529 
0.627451 0.290196 0.0627451 0.654902 0.345098 0.0470588 
0.682353 0.4 0.0431373 0.701961 0.45098 0.0431373 
0.498039 0.0745098 0.235294 0.52549 0.0941176 0.203922 
0.556863 0.121569 0.172549 0.588235 0.156863 0.141176 
0.619608 0.2 0.113725 0.65098 0.247059 0.0941176 
0.682353 0.298039 0.0784314 0.709804 0.352941 0.0666667 
0.729412 0.403922 0.0666667 0.74902 0.454902 0.0666667 
0.541176 0.0666667 0.247059 0.592157 0.0666667 0.266667 
0.572549 0.0901961 0.215686 0.643137 0.0666667 0.286275 
0.627451 0.0941176 0.235294 0.607843 0.121569 0.188235 
0.698039 0.0784314 0.313725 0.682353 0.0980392 0.258824 
0.662745 0.129412 0.203922 0.643137 0.160784 0.156863 
0.74902 0.0941176 0.345098 0.737255 0.113725 0.286275 
0.721569 0.137255 0.231373 0.701961 0.172549 0.180392 
0.678431 0.207843 0.133333 0.796078 0.113725 0.376471 
0.788235 0.133333 0.317647 0.776471 0.156863 0.262745 
0.756863 0.184314 0.207843 0.733333 0.219608 0.156863 
0.709804 0.258824 0.113725 0.839216 0.141176 0.407843 
0.835294 0.156863 0.352941 0.823529 0.180392 0.294118 
0.811765 0.207843 0.239216 0.788235 0.239216 0.184314 
0.764706 0.27451 0.137255 0.737255 0.313725 0.0980392 
0.87451 0.172549 0.439216 0.87451 0.188235 0.388235 
0.866667 0.203922 0.333333 0.858824 0.231373 0.27451 
0.839216 0.262745 0.219608 0.815686 0.294118 0.172549 
0.792157 0.333333 0.129412 0.760784 0.368627 0.0941176 
0.901961 0.203922 0.470588 0.905882 0.215686 0.423529 
0.901961 0.235294 0.368627 0.898039 0.258824 0.313725 
0.882353 0.286275 0.258824 0.862745 0.317647 0.207843 
0.839216 0.352941 0.160784 0.807843 0.388235 0.121569 
0.780392 0.423529 0.0901961 0.498039 0.0509804 0.27451 
0.498039 0.027451 0.32549 0.545098 0.0431373 0.294118 
0.498039 0.0117647 0.376471 0.54902 0.0235294 0.345098 
0.596078 0.0431373 0.313725 0.498039 0 0.435294 
0.54902 0.00784314 0.403922 0.6 0.0235294 0.372549 
0.65098 0.0470588 0.341176 0.498039 0 0.498039 
0.54902 0 0.466667 0.603922 0.0117647 0.431373 
0.654902 0.0352941 0.4 0.705882 0.0627451 0.368627 
0.498039 0 0.560784 0.54902 0 0.529412 
0.603922 0.00784314 0.498039 0.658824 0.027451 0.466667 
0.709804 0.0509804 0.431373 0.756863 0.0823529 0.403922 
0.498039 0.0117647 0.619608 0.54902 0.00784314 0.592157 
0.603922 0.0117647 0.564706 0.658824 0.027451 0.529412 
0.709804 0.0470588 0.498039 0.760784 0.0745098 0.466667 
0.803922 0.105882 0.435294 0.498039 0.027451 0.670588 
0.54902 0.0235294 0.65098 0.6 0.0235294 0.623529 
0.654902 0.0352941 0.596078 0.709804 0.0509804 0.564706 
0.760784 0.0745098 0.529412 0.803922 0.101961 0.498039 
0.843137 0.137255 0.466667 0.498039 0.0509804 0.721569 
0.545098 0.0431373 0.701961 0.596078 0.0431373 0.682353 
0.65098 0.0470588 0.654902 0.705882 0.0627451 0.627451 
0.756863 0.0823529 0.592157 0.803922 0.105882 0.560784 
0.843137 0.137255 0.529412 0.87451 0.168627 0.498039 
0.498039 0.0745098 0.760784 0.541176 0.0666667 0.74902 
0.592157 0.0666667 0.729412 0.643137 0.0666667 0.709804 
0.698039 0.0784314 0.682353 0.74902 0.0941176 0.65098 
0.796078 0.113725 0.619608 0.839216 0.141176 0.588235 
0.87451 0.172549 0.556863 0.901961 0.203922 0.52549 
0.454902 0.0666667 0.247059 0.403922 0.0666667 0.266667 
0.45098 0.0431373 0.294118 0.352941 0.0666667 0.286275 
0.4 0.0431373 0.313725 0.447059 0.0235294 0.345098 
0.298039 0.0784314 0.313725 0.345098 0.0470588 0.341176 
0.396078 0.0235294 0.372549 0.447059 0.00784314 0.403922 
0.247059 0.0941176 0.345098 0.290196 0.0627451 0.368627 
0.341176 0.0352941 0.4 0.392157 0.0117647 0.431373 
0.447059 0 0.466667 0.2 0.113725 0.376471 
0.239216 0.0823529 0.403922 0.286275 0.0509804 0.431373 
0.337255 0.027451 0.466667 0.392157 0.00784314 0.498039 
0.447059 0 0.529412 0.156863 0.141176 0.407843 
0.192157 0.105882 0.435294 0.235294 0.0745098 0.466667 
0.286275 0.0470588 0.498039 0.337255 0.027451 0.529412 
0.392157 0.0117647 0.564706 0.447059 0.00784314 0.592157 
0.121569 0.172549 0.439216 0.152941 0.137255 0.466667 
0.192157 0.101961 0.498039 0.235294 0.0745098 0.529412 
0.286275 0.0509804 0.564706 0.341176 0.0352941 0.596078 
0.396078 0.0235294 0.623529 0.447059 0.0235294 0.65098 
0.0941176 0.203922 0.470588 0.121569 0.168627 0.498039 
0.152941 0.137255 0.529412 0.192157 0.105882 0.560784 
0.239216 0.0823529 0.592157 0.290196 0.0627451 0.627451 
0.345098 0.0470588 0.654902 0.4 0.0431373 0.682353 
0.45098 0.0431373 0.701961 0.0745098 0.235294 0.498039 
0.0941176 0.203922 0.52549 0.121569 0.172549 0.556863 
0.156863 0.141176 0.588235 0.2 0.113725 0.619608 
0.247059 0.0941176 0.65098 0.298039 0.0784314 0.682353 
0.352941 0.0666667 0.709804 0.403922 0.0666667 0.729412 
0.454902 0.0666667 0.74902 0.0666667 0.247059 0.541176 
0.0666667 0.266667 0.592157 0.0901961 0.215686 0.572549 
0.0666667 0.286275 0.643137 0.0941176 0.235294 0.627451 
0.121569 0.188235 0.607843 0.0784314 0.313725 0.698039 
0.0980392 0.258824 0.682353 0.129412 0.203922 0.662745 
0.160784 0.156863 0.643137 0.0941176 0.345098 0.74902 
0.113725 0.286275 0.737255 0.137255 0.231373 0.721569 
0.172549 0.180392 0.701961 0.207843 0.133333 0.678431 
0.113725 0.376471 0.796078 0.133333 0.317647 0.788235 
0.156863 0.262745 0.776471 0.184314 0.207843 0.756863 
0.219608 0.156863 0.733333 0.258824 0.113725 0.709804 
0.141176 0.407843 0.839216 0.156863 0.352941 0.835294 
0.180392 0.294118 0.823529 0.207843 0.239216 0.811765 
0.239216 0.184314 0.788235 0.27451 0.137255 0.764706 
0.313725 0.0980392 0.737255 0.172549 0.439216 0.87451 
0.188235 0.388235 0.87451 0.203922 0.333333 0.866667 
0.231373 0.27451 0.858824 0.262745 0.219608 0.839216 
0.294118 0.172549 0.815686 0.333333 0.129412 0.792157 
0.368627 0.0941176 0.760784 0.203922 0.470588 0.901961 